; OIH minimal NPT equilibration mdp (position restraints on protein)
title                   = OIH NPT equilibration
define                  = -DPOSRES
integrator              = md
nsteps                  = 50000
dt                      = 0.002
nstxout-compressed      = 500
nstenergy               = 500
nstlog                  = 500
continuation            = yes
constraint_algorithm    = lincs
constraints             = h-bonds
lincs_iter              = 1
lincs_order             = 4
cutoff-scheme           = Verlet
ns_type                 = grid
nstlist                 = 10
rcoulomb                = 1.0
rvdw                    = 1.0
DispCorr                = EnerPres
coulombtype             = PME
pme_order               = 4
fourierspacing          = 0.16
tcoupl                  = V-rescale
tc-grps                 = Protein Non-Protein
tau_t                   = 0.1     0.1
ref_t                   = 300     300
pcoupl                  = C-rescale
pcoupltype              = isotropic
tau_p                   = 2.0
ref_p                   = 1.0
compressibility         = 4.5e-5
pbc                     = xyz
refcoord_scaling        = com
gen_vel                 = no
